/*--------------------------------*- C++ -*----------------------------------*\
  =========                 |
  \\      /  F ield         | OpenFOAM: The Open Source CFD Toolbox
   \\    /   O peration     | Website:  https://openfoam.org
    \\  /    A nd           | Version:  11
     \\/     M anipulation  |
\*---------------------------------------------------------------------------*/
FoamFile
{
    format      ascii;
    class       volVectorField;
    object      U;
}
// * * * * * * * * * * * * * * * * * * * * * * * * * * * * * * * * * * * * * //

dimensions      [0 1 -1 0 0 0 0];

internalField   uniform (0 0 0);

boundaryField
{
    movingWall
    {
        type            fixedValue;		// Feste Geschwindigkeit fuer bewegte Wand
        value           uniform (0.9 0 0);	// Geschwindigkeit in x-Richtung - CP1:0.54; CP3:0.9
    }

    fixedWall
    {
        type            noSlip;			// Kein Schlupf an stationaerer Wand
    }

	inlet
    {
        type            zeroGradient; 		
    }
    
    outlet
    {
        type            zeroGradient; 		
    }
    
    frontAndBack
    {
        type            empty;			// 2D-Bedingung fuer z-Richtung
    }
}

// ************************************************************************* //
